<?xml version="1.0" encoding="UTF-8"?>

<!-- generated on Tue Oct 22 17:18:52 2013 by SUMO sumo Version 0.18.0
<?xml version="1.0" encoding="UTF-8"?>

<configuration xmlns:xsi="http://www.w3.org/2001/XMLSchema-instance" xsi:noNamespaceSchemaLocation="http://sumo.sf.net/xsd/sumoConfiguration.xsd">

    <input>
        <net-file value="test.net.xml"/>
        <route-files value="test.rou.xml"/>
        <additional-files value="test.rerouter.xml"/>
    </input>

    <output>
        <fcd-output value="test-2.fcd.xml"/>
        <save-state.prefix value="state"/>
    </output>

    <time>
        <begin value="0"/>
        <end value="800"/>
    </time>

    <gui_only>
        <gui-settings-file value="test.settings.xml"/>
    </gui_only>

</configuration>
-->

<fcd-export>
    <timestep time="0.00">
        <vehicle id="0" x="590.15" y="401.65" angle="-90.00" type="DEFAULT_VEHTYPE" speed="0.00" pos="5.10" lane="3/2to2/2_0" slope="0.00"/>
    </timestep>
    <timestep time="1.00">
        <vehicle id="0" x="587.61" y="401.65" angle="-90.00" type="DEFAULT_VEHTYPE" speed="2.54" pos="7.64" lane="3/2to2/2_0" slope="0.00"/>
        <vehicle id="1" x="794.90" y="201.65" angle="-90.00" type="DEFAULT_VEHTYPE" speed="0.00" pos="5.10" lane="4/1to3/1_0" slope="0.00"/>
    </timestep>
    <timestep time="2.00">
        <vehicle id="0" x="583.11" y="401.65" angle="-90.00" type="DEFAULT_VEHTYPE" speed="4.50" pos="12.14" lane="3/2to2/2_0" slope="0.00"/>
        <vehicle id="1" x="793.07" y="201.65" angle="-90.00" type="DEFAULT_VEHTYPE" speed="1.83" pos="6.93" lane="4/1to3/1_0" slope="0.00"/>
        <vehicle id="2" x="5.10" y="398.35" angle="90.00" type="DEFAULT_VEHTYPE" speed="0.00" pos="5.10" lane="0/2to1/2_0" slope="0.00"/>
    </timestep>
    <timestep time="3.00">
        <vehicle id="0" x="576.06" y="401.65" angle="-90.00" type="DEFAULT_VEHTYPE" speed="7.05" pos="19.19" lane="3/2to2/2_0" slope="0.00"/>
        <vehicle id="1" x="789.60" y="201.65" angle="-90.00" type="DEFAULT_VEHTYPE" speed="3.47" pos="10.40" lane="4/1to3/1_0" slope="0.00"/>
        <vehicle id="2" x="7.38" y="398.35" angle="90.00" type="DEFAULT_VEHTYPE" speed="2.28" pos="7.38" lane="0/2to1/2_0" slope="0.00"/>
        <vehicle id="3" x="590.15" y="401.65" angle="-90.00" type="DEFAULT_VEHTYPE" speed="0.00" pos="5.10" lane="3/2to2/2_0" slope="0.00"/>
    </timestep>
    <timestep time="4.00">
        <vehicle id="0" x="567.29" y="401.65" angle="-90.00" type="DEFAULT_VEHTYPE" speed="8.77" pos="27.96" lane="3/2to2/2_0" slope="0.00"/>
        <vehicle id="1" x="784.14" y="201.65" angle="-90.00" type="DEFAULT_VEHTYPE" speed="5.46" pos="15.86" lane="4/1to3/1_0" slope="0.00"/>
        <vehicle id="2" x="11.67" y="398.35" angle="90.00" type="DEFAULT_VEHTYPE" speed="4.29" pos="11.67" lane="0/2to1/2_0" slope="0.00"/>
        <vehicle id="3" x="587.56" y="401.65" angle="-90.00" type="DEFAULT_VEHTYPE" speed="2.59" pos="7.69" lane="3/2to2/2_0" slope="0.00"/>
        <vehicle id="4" x="198.35" y="190.15" angle="0.00" type="DEFAULT_VEHTYPE" speed="0.00" pos="5.10" lane="1/1to1/0_0" slope="0.00"/>
    </timestep>
    <timestep time="5.00">
        <vehicle id="0" x="556.26" y="401.65" angle="-90.00" type="DEFAULT_VEHTYPE" speed="11.03" pos="38.99" lane="3/2to2/2_0" slope="0.00"/>
        <vehicle id="1" x="776.16" y="201.65" angle="-90.00" type="DEFAULT_VEHTYPE" speed="7.98" pos="23.84" lane="4/1to3/1_0" slope="0.00"/>
        <vehicle id="2" x="17.42" y="398.35" angle="90.00" type="DEFAULT_VEHTYPE" speed="5.75" pos="17.42" lane="0/2to1/2_0" slope="0.00"/>
        <vehicle id="3" x="583.10" y="401.65" angle="-90.00" type="DEFAULT_VEHTYPE" speed="4.46" pos="12.15" lane="3/2to2/2_0" slope="0.00"/>
        <vehicle id="4" x="198.35" y="187.97" angle="0.00" type="DEFAULT_VEHTYPE" speed="2.18" pos="7.28" lane="1/1to1/0_0" slope="0.00"/>
        <vehicle id="5" x="398.35" y="794.90" angle="0.00" type="DEFAULT_VEHTYPE" speed="0.00" pos="5.10" lane="2/4to2/3_0" slope="0.00"/>
    </timestep>
    <timestep time="6.00">
        <vehicle id="0" x="542.70" y="401.65" angle="-90.00" type="DEFAULT_VEHTYPE" speed="13.57" pos="52.55" lane="3/2to2/2_0" slope="0.00"/>
        <vehicle id="1" x="766.24" y="201.65" angle="-90.00" type="DEFAULT_VEHTYPE" speed="9.92" pos="33.76" lane="4/1to3/1_0" slope="0.00"/>
        <vehicle id="2" x="25.37" y="398.35" angle="90.00" type="DEFAULT_VEHTYPE" speed="7.95" pos="25.37" lane="0/2to1/2_0" slope="0.00"/>
        <vehicle id="3" x="576.93" y="401.65" angle="-90.00" type="DEFAULT_VEHTYPE" speed="6.17" pos="18.32" lane="3/2to2/2_0" slope="0.00"/>
        <vehicle id="4" x="198.35" y="184.01" angle="0.00" type="DEFAULT_VEHTYPE" speed="3.96" pos="11.24" lane="1/1to1/0_0" slope="0.00"/>
        <vehicle id="5" x="398.35" y="793.52" angle="0.00" type="DEFAULT_VEHTYPE" speed="1.38" pos="6.48" lane="2/4to2/3_0" slope="0.00"/>
        <vehicle id="6" x="209.85" y="598.35" angle="90.00" type="DEFAULT_VEHTYPE" speed="0.00" pos="5.10" lane="1/3to2/3_0" slope="0.00"/>
    </timestep>
    <timestep time="7.00">
        <vehicle id="0" x="529.95" y="401.65" angle="-90.00" type="DEFAULT_VEHTYPE" speed="12.75" pos="65.30" lane="3/2to2/2_0" slope="0.00"/>
        <vehicle id="1" x="754.24" y="201.65" angle="-90.00" type="DEFAULT_VEHTYPE" speed="12.00" pos="45.76" lane="4/1to3/1_0" slope="0.00"/>
        <vehicle id="2" x="35.22" y="398.35" angle="90.00" type="DEFAULT_VEHTYPE" speed="9.85" pos="35.22" lane="0/2to1/2_0" slope="0.00"/>
        <vehicle id="3" x="569.24" y="401.65" angle="-90.00" type="DEFAULT_VEHTYPE" speed="7.70" pos="26.01" lane="3/2to2/2_0" slope="0.00"/>
        <vehicle id="4" x="198.35" y="177.76" angle="0.00" type="DEFAULT_VEHTYPE" speed="6.25" pos="17.49" lane="1/1to1/0_0" slope="0.00"/>
        <vehicle id="5" x="398.35" y="789.58" angle="0.00" type="DEFAULT_VEHTYPE" speed="3.94" pos="10.42" lane="2/4to2/3_0" slope="0.00"/>
        <vehicle id="6" x="212.06" y="598.35" angle="90.00" type="DEFAULT_VEHTYPE" speed="2.21" pos="7.31" lane="1/3to2/3_0" slope="0.00"/>
        <vehicle id="7" x="198.35" y="390.15" angle="0.00" type="DEFAULT_VEHTYPE" speed="0.00" pos="5.10" lane="1/2to1/1_0" slope="0.00"/>
    </timestep>
    <timestep time="8.00">
        <vehicle id="0" x="516.26" y="401.65" angle="-90.00" type="DEFAULT_VEHTYPE" speed="13.69" pos="78.99" lane="3/2to2/2_0" slope="0.00"/>
        <vehicle id="1" x="741.58" y="201.65" angle="-90.00" type="DEFAULT_VEHTYPE" speed="12.66" pos="58.42" lane="4/1to3/1_0" slope="0.00"/>
        <vehicle id="2" x="47.63" y="398.35" angle="90.00" type="DEFAULT_VEHTYPE" speed="12.41" pos="47.63" lane="0/2to1/2_0" slope="0.00"/>
        <vehicle id="3" x="559.94" y="401.65" angle="-90.00" type="DEFAULT_VEHTYPE" speed="9.30" pos="35.31" lane="3/2to2/2_0" slope="0.00"/>
        <vehicle id="4" x="198.35" y="169.80" angle="0.00" type="DEFAULT_VEHTYPE" speed="7.96" pos="25.45" lane="1/1to1/0_0" slope="0.00"/>
        <vehicle id="5" x="398.35" y="783.48" angle="0.00" type="DEFAULT_VEHTYPE" speed="6.11" pos="16.52" lane="2/4to2/3_0" slope="0.00"/>
        <vehicle id="6" x="216.70" y="598.35" angle="90.00" type="DEFAULT_VEHTYPE" speed="4.64" pos="11.95" lane="1/3to2/3_0" slope="0.00"/>
        <vehicle id="7" x="198.35" y="387.71" angle="0.00" type="DEFAULT_VEHTYPE" speed="2.44" pos="7.54" lane="1/2to1/1_0" slope="0.00"/>
        <vehicle id="8" x="209.85" y="198.35" angle="90.00" type="DEFAULT_VEHTYPE" speed="0.00" pos="5.10" lane="1/1to2/1_0" slope="0.00"/>
    </timestep>
    <timestep time="9.00">
        <vehicle id="0" x="503.61" y="401.65" angle="-90.00" type="DEFAULT_VEHTYPE" speed="12.65" pos="91.64" lane="3/2to2/2_0" slope="0.00"/>
        <vehicle id="1" x="728.03" y="201.65" angle="-90.00" type="DEFAULT_VEHTYPE" speed="13.56" pos="71.97" lane="4/1to3/1_0" slope="0.00"/>
        <vehicle id="2" x="61.24" y="398.35" angle="90.00" type="DEFAULT_VEHTYPE" speed="13.61" pos="61.24" lane="0/2to1/2_0" slope="0.00"/>
        <vehicle id="3" x="548.57" y="401.65" angle="-90.00" type="DEFAULT_VEHTYPE" speed="11.37" pos="46.68" lane="3/2to2/2_0" slope="0.00"/>
        <vehicle id="4" x="198.35" y="159.46" angle="0.00" type="DEFAULT_VEHTYPE" speed="10.34" pos="35.79" lane="1/1to1/0_0" slope="0.00"/>
        <vehicle id="5" x="398.35" y="775.51" angle="0.00" type="DEFAULT_VEHTYPE" speed="7.96" pos="24.49" lane="2/4to2/3_0" slope="0.00"/>
        <vehicle id="6" x="223.62" y="598.35" angle="90.00" type="DEFAULT_VEHTYPE" speed="6.93" pos="18.87" lane="1/3to2/3_0" slope="0.00"/>
        <vehicle id="7" x="198.35" y="383.73" angle="0.00" type="DEFAULT_VEHTYPE" speed="3.98" pos="11.52" lane="1/2to1/1_0" slope="0.00"/>
        <vehicle id="8" x="212.33" y="198.35" angle="90.00" type="DEFAULT_VEHTYPE" speed="2.48" pos="7.58" lane="1/1to2/1_0" slope="0.00"/>
        <vehicle id="9" x="601.65" y="209.85" angle="180.00" type="DEFAULT_VEHTYPE" speed="0.00" pos="5.10" lane="3/1to3/2_0" slope="0.00"/>
    </timestep>
    <timestep time="10.00">
        <vehicle id="0" x="490.64" y="401.65" angle="-90.00" type="DEFAULT_VEHTYPE" speed="12.97" pos="104.61" lane="3/2to2/2_0" slope="0.00"/>
        <vehicle id="1" x="714.90" y="201.65" angle="-90.00" type="DEFAULT_VEHTYPE" speed="13.12" pos="85.10" lane="4/1to3/1_0" slope="0.00"/>
        <vehicle id="10" x="409.85" y="198.35" angle="90.00" type="DEFAULT_VEHTYPE" speed="0.00" pos="5.10" lane="2/1to3/1_0" slope="0.00"/>
        <vehicle id="2" x="74.24" y="398.35" angle="90.00" type="DEFAULT_VEHTYPE" speed="13.00" pos="74.24" lane="0/2to1/2_0" slope="0.00"/>
        <vehicle id="3" x="535.54" y="401.65" angle="-90.00" type="DEFAULT_VEHTYPE" speed="13.03" pos="59.71" lane="3/2to2/2_0" slope="0.00"/>
        <vehicle id="4" x="198.35" y="147.73" angle="0.00" type="DEFAULT_VEHTYPE" speed="11.73" pos="47.52" lane="1/1to1/0_0" slope="0.00"/>
        <vehicle id="5" x="398.35" y="766.20" angle="0.00" type="DEFAULT_VEHTYPE" speed="9.32" pos="33.80" lane="2/4to2/3_0" slope="0.00"/>
        <vehicle id="6" x="232.75" y="598.35" angle="90.00" type="DEFAULT_VEHTYPE" speed="9.13" pos="28.00" lane="1/3to2/3_0" slope="0.00"/>
        <vehicle id="7" x="198.35" y="377.79" angle="0.00" type="DEFAULT_VEHTYPE" speed="5.94" pos="17.46" lane="1/2to1/1_0" slope="0.00"/>
        <vehicle id="8" x="216.66" y="198.35" angle="90.00" type="DEFAULT_VEHTYPE" speed="4.33" pos="11.91" lane="1/1to2/1_0" slope="0.00"/>
        <vehicle id="9" x="601.65" y="212.23" angle="180.00" type="DEFAULT_VEHTYPE" speed="2.38" pos="7.48" lane="3/1to3/2_0" slope="0.00"/>
    </timestep>
    <timestep time="11.00">
        <vehicle id="0" x="476.94" y="401.65" angle="-90.00" type="DEFAULT_VEHTYPE" speed="13.70" pos="118.31" lane="3/2to2/2_0" slope="0.00"/>
        <vehicle id="1" x="701.04" y="201.65" angle="-90.00" type="DEFAULT_VEHTYPE" speed="13.86" pos="98.96" lane="4/1to3/1_0" slope="0.00"/>
        <vehicle id="10" x="412.01" y="198.35" angle="90.00" type="DEFAULT_VEHTYPE" speed="2.16" pos="7.26" lane="2/1to3/1_0" slope="0.00"/>
        <vehicle id="11" x="598.35" y="794.90" angle="0.00" type="DEFAULT_VEHTYPE" speed="0.00" pos="5.10" lane="3/4to3/3_0" slope="0.00"/>
        <vehicle id="2" x="87.77" y="398.35" angle="90.00" type="DEFAULT_VEHTYPE" speed="13.54" pos="87.77" lane="0/2to1/2_0" slope="0.00"/>
        <vehicle id="3" x="522.47" y="401.65" angle="-90.00" type="DEFAULT_VEHTYPE" speed="13.07" pos="72.78" lane="3/2to2/2_0" slope="0.00"/>
        <vehicle id="4" x="198.35" y="134.54" angle="0.00" type="DEFAULT_VEHTYPE" speed="13.19" pos="60.71" lane="1/1to1/0_0" slope="0.00"/>
        <vehicle id="5" x="398.35" y="755.49" angle="0.00" type="DEFAULT_VEHTYPE" speed="10.71" pos="44.51" lane="2/4to2/3_0" slope="0.00"/>
        <vehicle id="6" x="244.39" y="598.35" angle="90.00" type="DEFAULT_VEHTYPE" speed="11.64" pos="39.64" lane="1/3to2/3_0" slope="0.00"/>
        <vehicle id="7" x="198.35" y="369.48" angle="0.00" type="DEFAULT_VEHTYPE" speed="8.31" pos="25.77" lane="1/2to1/1_0" slope="0.00"/>
        <vehicle id="8" x="222.30" y="198.35" angle="90.00" type="DEFAULT_VEHTYPE" speed="5.64" pos="17.55" lane="1/1to2/1_0" slope="0.00"/>
        <vehicle id="9" x="601.65" y="216.80" angle="180.00" type="DEFAULT_VEHTYPE" speed="4.57" pos="12.05" lane="3/1to3/2_0" slope="0.00"/>
    </timestep>
    <timestep time="12.00">
        <vehicle id="0" x="463.78" y="401.65" angle="-90.00" type="DEFAULT_VEHTYPE" speed="13.16" pos="131.47" lane="3/2to2/2_0" slope="0.00"/>
        <vehicle id="1" x="687.41" y="201.65" angle="-90.00" type="DEFAULT_VEHTYPE" speed="13.63" pos="112.59" lane="4/1to3/1_0" slope="0.00"/>
        <vehicle id="10" x="415.89" y="198.35" angle="90.00" type="DEFAULT_VEHTYPE" speed="3.88" pos="11.14" lane="2/1to3/1_0" slope="0.00"/>
        <vehicle id="11" x="598.35" y="792.85" angle="0.00" type="DEFAULT_VEHTYPE" speed="2.05" pos="7.15" lane="3/4to3/3_0" slope="0.00"/>
        <vehicle id="12" x="401.65" y="5.10" angle="180.00" type="DEFAULT_VEHTYPE" speed="0.00" pos="5.10" lane="2/0to2/1_0" slope="0.00"/>
        <vehicle id="2" x="101.44" y="398.35" angle="90.00" type="DEFAULT_VEHTYPE" speed="13.67" pos="101.44" lane="0/2to1/2_0" slope="0.00"/>
        <vehicle id="3" x="508.68" y="401.65" angle="-90.00" type="DEFAULT_VEHTYPE" speed="13.79" pos="86.57" lane="3/2to2/2_0" slope="0.00"/>
        <vehicle id="4" x="198.35" y="120.71" angle="0.00" type="DEFAULT_VEHTYPE" speed="13.84" pos="74.54" lane="1/1to1/0_0" slope="0.00"/>
        <vehicle id="5" x="398.35" y="742.28" angle="0.00" type="DEFAULT_VEHTYPE" speed="13.20" pos="57.72" lane="2/4to2/3_0" slope="0.00"/>
        <vehicle id="6" x="257.35" y="598.35" angle="90.00" type="DEFAULT_VEHTYPE" speed="12.96" pos="52.60" lane="1/3to2/3_0" slope="0.00"/>
        <vehicle id="7" x="198.35" y="359.03" angle="0.00" type="DEFAULT_VEHTYPE" speed="10.45" pos="36.22" lane="1/2to1/1_0" slope="0.00"/>
        <vehicle id="8" x="230.17" y="198.35" angle="90.00" type="DEFAULT_VEHTYPE" speed="7.86" pos="25.42" lane="1/1to2/1_0" slope="0.00"/>
        <vehicle id="9" x="601.65" y="223.70" angle="180.00" type="DEFAULT_VEHTYPE" speed="6.90" pos="18.95" lane="3/1to3/2_0" slope="0.00"/>
    </timestep>
    <timestep time="13.00">
        <vehicle id="0" x="450.38" y="401.65" angle="-90.00" type="DEFAULT_VEHTYPE" speed="13.39" pos="144.87" lane="3/2to2/2_0" slope="0.00"/>
        <vehicle id="1" x="674.18" y="201.65" angle="-90.00" type="DEFAULT_VEHTYPE" speed="13.23" pos="125.82" lane="4/1to3/1_0" slope="0.00"/>
        <vehicle id="10" x="422.23" y="198.35" angle="90.00" type="DEFAULT_VEHTYPE" speed="6.34" pos="17.48" lane="2/1to3/1_0" slope="0.00"/>
        <vehicle id="11" x="598.35" y="789.34" angle="0.00" type="DEFAULT_VEHTYPE" speed="3.51" pos="10.66" lane="3/4to3/3_0" slope="0.00"/>
        <vehicle id="12" x="401.65" y="6.89" angle="180.00" type="DEFAULT_VEHTYPE" speed="1.79" pos="6.89" lane="2/0to2/1_0" slope="0.00"/>
        <vehicle id="13" x="190.15" y="601.65" angle="-90.00" type="DEFAULT_VEHTYPE" speed="0.00" pos="5.10" lane="1/3to0/3_0" slope="0.00"/>
        <vehicle id="2" x="114.27" y="398.35" angle="90.00" type="DEFAULT_VEHTYPE" speed="12.83" pos="114.27" lane="0/2to1/2_0" slope="0.00"/>
        <vehicle id="3" x="495.58" y="401.65" angle="-90.00" type="DEFAULT_VEHTYPE" speed="13.10" pos="99.67" lane="3/2to2/2_0" slope="0.00"/>
        <vehicle id="4" x="198.35" y="107.57" angle="0.00" type="DEFAULT_VEHTYPE" speed="13.14" pos="87.68" lane="1/1to1/0_0" slope="0.00"/>
        <vehicle id="5" x="398.35" y="728.93" angle="0.00" type="DEFAULT_VEHTYPE" speed="13.36" pos="71.07" lane="2/4to2/3_0" slope="0.00"/>
        <vehicle id="6" x="270.77" y="598.35" angle="90.00" type="DEFAULT_VEHTYPE" speed="13.43" pos="66.02" lane="1/3to2/3_0" slope="0.00"/>
        <vehicle id="7" x="198.35" y="347.25" angle="0.00" type="DEFAULT_VEHTYPE" speed="11.78" pos="48.00" lane="1/2to1/1_0" slope="0.00"/>
        <vehicle id="8" x="240.60" y="198.35" angle="90.00" type="DEFAULT_VEHTYPE" speed="10.43" pos="35.85" lane="1/1to2/1_0" slope="0.00"/>
        <vehicle id="9" x="601.65" y="232.80" angle="180.00" type="DEFAULT_VEHTYPE" speed="9.10" pos="28.05" lane="3/1to3/2_0" slope="0.00"/>
    </timestep>
    <timestep time="14.00">
        <vehicle id="0" x="437.13" y="401.65" angle="-90.00" type="DEFAULT_VEHTYPE" speed="13.26" pos="158.12" lane="3/2to2/2_0" slope="0.00"/>
        <vehicle id="1" x="660.83" y="201.65" angle="-90.00" type="DEFAULT_VEHTYPE" speed="13.35" pos="139.17" lane="4/1to3/1_0" slope="0.00"/>
        <vehicle id="10" x="430.72" y="198.35" angle="90.00" type="DEFAULT_VEHTYPE" speed="8.50" pos="25.97" lane="2/1to3/1_0" slope="0.00"/>
        <vehicle id="11" x="598.35" y="784.14" angle="0.00" type="DEFAULT_VEHTYPE" speed="5.20" pos="15.86" lane="3/4to3/3_0" slope="0.00"/>
        <vehicle id="12" x="401.65" y="11.14" angle="180.00" type="DEFAULT_VEHTYPE" speed="4.26" pos="11.14" lane="2/0to2/1_0" slope="0.00"/>
        <vehicle id="13" x="188.16" y="601.65" angle="-90.00" type="DEFAULT_VEHTYPE" speed="1.99" pos="7.09" lane="1/3to0/3_0" slope="0.00"/>
        <vehicle id="14" x="201.65" y="5.10" angle="180.00" type="DEFAULT_VEHTYPE" speed="0.00" pos="5.10" lane="1/0to1/1_0" slope="0.00"/>
        <vehicle id="2" x="127.24" y="398.35" angle="90.00" type="DEFAULT_VEHTYPE" speed="12.98" pos="127.24" lane="0/2to1/2_0" slope="0.00"/>
        <vehicle id="3" x="482.89" y="401.65" angle="-90.00" type="DEFAULT_VEHTYPE" speed="12.70" pos="112.36" lane="3/2to2/2_0" slope="0.00"/>
        <vehicle id="4" x="198.35" y="94.26" angle="0.00" type="DEFAULT_VEHTYPE" speed="13.31" pos="100.99" lane="1/1to1/0_0" slope="0.00"/>
        <vehicle id="5" x="398.35" y="716.16" angle="0.00" type="DEFAULT_VEHTYPE" speed="12.76" pos="83.84" lane="2/4to2/3_0" slope="0.00"/>
        <vehicle id="6" x="283.93" y="598.35" angle="90.00" type="DEFAULT_VEHTYPE" speed="13.15" pos="79.18" lane="1/3to2/3_0" slope="0.00"/>
        <vehicle id="7" x="198.35" y="334.61" angle="0.00" type="DEFAULT_VEHTYPE" speed="12.64" pos="60.64" lane="1/2to1/1_0" slope="0.00"/>
        <vehicle id="8" x="253.25" y="198.35" angle="90.00" type="DEFAULT_VEHTYPE" speed="12.65" pos="48.50" lane="1/1to2/1_0" slope="0.00"/>
        <vehicle id="9" x="601.65" y="243.97" angle="180.00" type="DEFAULT_VEHTYPE" speed="11.17" pos="39.22" lane="3/1to3/2_0" slope="0.00"/>
    </timestep>
    <timestep time="15.00">
        <vehicle id="0" x="425.64" y="401.65" angle="-90.00" type="DEFAULT_VEHTYPE" speed="11.49" pos="169.61" lane="3/2to2/2_0" slope="0.00"/>
        <vehicle id="1" x="647.29" y="201.65" angle="-90.00" type="DEFAULT_VEHTYPE" speed="13.53" pos="152.71" lane="4/1to3/1_0" slope="0.00"/>
        <vehicle id="10" x="441.76" y="198.35" angle="90.00" type="DEFAULT_VEHTYPE" speed="11.04" pos="37.01" lane="2/1to3/1_0" slope="0.00"/>
        <vehicle id="11" x="598.35" y="776.84" angle="0.00" type="DEFAULT_VEHTYPE" speed="7.29" pos="23.16" lane="3/4to3/3_0" slope="0.00"/>
        <vehicle id="12" x="401.65" y="17.12" angle="180.00" type="DEFAULT_VEHTYPE" speed="5.98" pos="17.12" lane="2/0to2/1_0" slope="0.00"/>
        <vehicle id="13" x="184.83" y="601.65" angle="-90.00" type="DEFAULT_VEHTYPE" speed="3.32" pos="10.42" lane="1/3to0/3_0" slope="0.00"/>
        <vehicle id="14" x="201.65" y="6.60" angle="180.00" type="DEFAULT_VEHTYPE" speed="1.50" pos="6.60" lane="1/0to1/1_0" slope="0.00"/>
        <vehicle id="15" x="601.65" y="209.85" angle="180.00" type="DEFAULT_VEHTYPE" speed="0.00" pos="5.10" lane="3/1to3/2_0" slope="0.00"/>
        <vehicle id="2" x="140.22" y="398.35" angle="90.00" type="DEFAULT_VEHTYPE" speed="12.97" pos="140.22" lane="0/2to1/2_0" slope="0.00"/>
        <vehicle id="3" x="469.85" y="401.65" angle="-90.00" type="DEFAULT_VEHTYPE" speed="13.04" pos="125.40" lane="3/2to2/2_0" slope="0.00"/>
        <vehicle id="4" x="198.35" y="80.52" angle="0.00" type="DEFAULT_VEHTYPE" speed="13.74" pos="114.73" lane="1/1to1/0_0" slope="0.00"/>
        <vehicle id="5" x="398.35" y="703.19" angle="0.00" type="DEFAULT_VEHTYPE" speed="12.97" pos="96.81" lane="2/4to2/3_0" slope="0.00"/>
        <vehicle id="6" x="297.64" y="598.35" angle="90.00" type="DEFAULT_VEHTYPE" speed="13.72" pos="92.89" lane="1/3to2/3_0" slope="0.00"/>
        <vehicle id="7" x="198.35" y="321.86" angle="0.00" type="DEFAULT_VEHTYPE" speed="12.75" pos="73.39" lane="1/2to1/1_0" slope="0.00"/>
        <vehicle id="8" x="266.66" y="198.35" angle="90.00" type="DEFAULT_VEHTYPE" speed="13.42" pos="61.91" lane="1/1to2/1_0" slope="0.00"/>
        <vehicle id="9" x="601.65" y="257.12" angle="180.00" type="DEFAULT_VEHTYPE" speed="13.14" pos="52.37" lane="3/1to3/2_0" slope="0.00"/>
    </timestep>
    <timestep time="16.00">
        <vehicle id="0" x="417.68" y="401.65" angle="-90.00" type="DEFAULT_VEHTYPE" speed="7.95" pos="177.57" lane="3/2to2/2_0" slope="0.00"/>
        <vehicle id="1" x="633.84" y="201.65" angle="-90.00" type="DEFAULT_VEHTYPE" speed="13.45" pos="166.16" lane="4/1to3/1_0" slope="0.00"/>
        <vehicle id="10" x="455.27" y="198.35" angle="90.00" type="DEFAULT_VEHTYPE" speed="13.51" pos="50.52" lane="2/1to3/1_0" slope="0.00"/>
        <vehicle id="11" x="598.35" y="768.06" angle="0.00" type="DEFAULT_VEHTYPE" speed="8.78" pos="31.94" lane="3/4to3/3_0" slope="0.00"/>
        <vehicle id="12" x="401.65" y="24.86" angle="180.00" type="DEFAULT_VEHTYPE" speed="7.74" pos="24.86" lane="2/0to2/1_0" slope="0.00"/>
        <vehicle id="13" x="179.98" y="601.65" angle="-90.00" type="DEFAULT_VEHTYPE" speed="4.85" pos="15.27" lane="1/3to0/3_0" slope="0.00"/>
        <vehicle id="14" x="201.65" y="9.47" angle="180.00" type="DEFAULT_VEHTYPE" speed="2.87" pos="9.47" lane="1/0to1/1_0" slope="0.00"/>
        <vehicle id="15" x="601.65" y="211.68" angle="180.00" type="DEFAULT_VEHTYPE" speed="1.83" pos="6.93" lane="3/1to3/2_0" slope="0.00"/>
        <vehicle id="16" x="598.35" y="794.90" angle="0.00" type="DEFAULT_VEHTYPE" speed="0.00" pos="5.10" lane="3/4to3/3_0" slope="0.00"/>
        <vehicle id="2" x="153.25" y="398.35" angle="90.00" type="DEFAULT_VEHTYPE" speed="13.04" pos="153.25" lane="0/2to1/2_0" slope="0.00"/>
        <vehicle id="3" x="456.15" y="401.65" angle="-90.00" type="DEFAULT_VEHTYPE" speed="13.70" pos="139.10" lane="3/2to2/2_0" slope="0.00"/>
        <vehicle id="4" x="198.35" y="67.18" angle="0.00" type="DEFAULT_VEHTYPE" speed="13.34" pos="128.07" lane="1/1to1/0_0" slope="0.00"/>
        <vehicle id="5" x="398.35" y="690.06" angle="0.00" type="DEFAULT_VEHTYPE" speed="13.13" pos="109.94" lane="2/4to2/3_0" slope="0.00"/>
        <vehicle id="6" x="311.18" y="598.35" angle="90.00" type="DEFAULT_VEHTYPE" speed="13.54" pos="106.43" lane="1/3to2/3_0" slope="0.00"/>
        <vehicle id="7" x="198.35" y="308.45" angle="0.00" type="DEFAULT_VEHTYPE" speed="13.41" pos="86.80" lane="1/2to1/1_0" slope="0.00"/>
        <vehicle id="8" x="279.68" y="198.35" angle="90.00" type="DEFAULT_VEHTYPE" speed="13.01" pos="74.93" lane="1/1to2/1_0" slope="0.00"/>
        <vehicle id="9" x="601.65" y="270.27" angle="180.00" type="DEFAULT_VEHTYPE" speed="13.15" pos="65.52" lane="3/1to3/2_0" slope="0.00"/>
    </timestep>
    <timestep time="17.00">
        <vehicle id="0" x="411.52" y="401.65" angle="-90.00" type="DEFAULT_VEHTYPE" speed="6.17" pos="183.73" lane="3/2to2/2_0" slope="0.00"/>
        <vehicle id="1" x="623.51" y="201.65" angle="-90.00" type="DEFAULT_VEHTYPE" speed="10.34" pos="176.49" lane="4/1to3/1_0" slope="0.00"/>
        <vehicle id="10" x="469.17" y="198.35" angle="90.00" type="DEFAULT_VEHTYPE" speed="13.90" pos="64.42" lane="2/1to3/1_0" slope="0.00"/>
        <vehicle id="11" x="598.35" y="757.87" angle="0.00" type="DEFAULT_VEHTYPE" speed="10.19" pos="42.13" lane="3/4to3/3_0" slope="0.00"/>
        <vehicle id="12" x="401.65" y="35.19" angle="180.00" type="DEFAULT_VEHTYPE" speed="10.33" pos="35.19" lane="2/0to2/1_0" slope="0.00"/>
        <vehicle id="13" x="173.16" y="601.65" angle="-90.00" type="DEFAULT_VEHTYPE" speed="6.82" pos="22.09" lane="1/3to0/3_0" slope="0.00"/>
        <vehicle id="14" x="201.65" y="13.76" angle="180.00" type="DEFAULT_VEHTYPE" speed="4.29" pos="13.76" lane="1/0to1/1_0" slope="0.00"/>
        <vehicle id="15" x="601.65" y="215.50" angle="180.00" type="DEFAULT_VEHTYPE" speed="3.82" pos="10.75" lane="3/1to3/2_0" slope="0.00"/>
        <vehicle id="16" x="598.35" y="793.16" angle="0.00" type="DEFAULT_VEHTYPE" speed="1.74" pos="6.84" lane="3/4to3/3_0" slope="0.00"/>
        <vehicle id="17" x="601.65" y="609.85" angle="180.00" type="DEFAULT_VEHTYPE" speed="0.00" pos="5.10" lane="3/3to3/4_0" slope="0.00"/>
        <vehicle id="2" x="166.00" y="398.35" angle="90.00" type="DEFAULT_VEHTYPE" speed="12.75" pos="166.00" lane="0/2to1/2_0" slope="0.00"/>
        <vehicle id="3" x="442.96" y="401.65" angle="-90.00" type="DEFAULT_VEHTYPE" speed="13.19" pos="152.29" lane="3/2to2/2_0" slope="0.00"/>
        <vehicle id="4" x="198.35" y="53.91" angle="0.00" type="DEFAULT_VEHTYPE" speed="13.27" pos="141.34" lane="1/1to1/0_0" slope="0.00"/>
        <vehicle id="5" x="398.35" y="677.33" angle="0.00" type="DEFAULT_VEHTYPE" speed="12.73" pos="122.67" lane="2/4to2/3_0" slope="0.00"/>
        <vehicle id="6" x="324.87" y="598.35" angle="90.00" type="DEFAULT_VEHTYPE" speed="13.68" pos="120.12" lane="1/3to2/3_0" slope="0.00"/>
        <vehicle id="7" x="198.35" y="295.00" angle="0.00" type="DEFAULT_VEHTYPE" speed="13.45" pos="100.25" lane="1/2to1/1_0" slope="0.00"/>
        <vehicle id="8" x="292.54" y="198.35" angle="90.00" type="DEFAULT_VEHTYPE" speed="12.86" pos="87.79" lane="1/1to2/1_0" slope="0.00"/>
        <vehicle id="9" x="601.65" y="283.73" angle="180.00" type="DEFAULT_VEHTYPE" speed="13.46" pos="78.98" lane="3/1to3/2_0" slope="0.00"/>
    </timestep>
    <timestep time="18.00">
        <vehicle id="0" x="402.92" y="401.39" angle="-87.00" type="DEFAULT_VEHTYPE" speed="8.62" pos="1.85" lane=":2/2_6_0" slope="0.00"/>
        <vehicle id="1" x="616.21" y="201.65" angle="-90.00" type="DEFAULT_VEHTYPE" speed="7.30" pos="183.79" lane="4/1to3/1_0" slope="0.00"/>
        <vehicle id="10" x="482.63" y="198.35" angle="90.00" type="DEFAULT_VEHTYPE" speed="13.47" pos="77.88" lane="2/1to3/1_0" slope="0.00"/>
        <vehicle id="11" x="598.35" y="745.29" angle="0.00" type="DEFAULT_VEHTYPE" speed="12.59" pos="54.71" lane="3/4to3/3_0" slope="0.00"/>
        <vehicle id="12" x="401.65" y="47.54" angle="180.00" type="DEFAULT_VEHTYPE" speed="12.35" pos="47.54" lane="2/0to2/1_0" slope="0.00"/>
        <vehicle id="13" x="164.16" y="601.65" angle="-90.00" type="DEFAULT_VEHTYPE" speed="9.00" pos="31.09" lane="1/3to0/3_0" slope="0.00"/>
        <vehicle id="14" x="201.65" y="19.71" angle="180.00" type="DEFAULT_VEHTYPE" speed="5.95" pos="19.71" lane="1/0to1/1_0" slope="0.00"/>
        <vehicle id="15" x="601.65" y="221.31" angle="180.00" type="DEFAULT_VEHTYPE" speed="5.82" pos="16.56" lane="3/1to3/2_0" slope="0.00"/>
        <vehicle id="16" x="598.35" y="789.08" angle="0.00" type="DEFAULT_VEHTYPE" speed="4.07" pos="10.92" lane="3/4to3/3_0" slope="0.00"/>
        <vehicle id="17" x="601.65" y="611.87" angle="180.00" type="DEFAULT_VEHTYPE" speed="2.02" pos="7.12" lane="3/3to3/4_0" slope="0.00"/>
        <vehicle id="18" x="201.65" y="209.85" angle="180.00" type="DEFAULT_VEHTYPE" speed="0.00" pos="5.10" lane="1/1to1/2_0" slope="0.00"/>
        <vehicle id="2" x="176.59" y="398.35" angle="90.00" type="DEFAULT_VEHTYPE" speed="10.59" pos="176.59" lane="0/2to1/2_0" slope="0.00"/>
        <vehicle id="3" x="430.70" y="401.65" angle="-90.00" type="DEFAULT_VEHTYPE" speed="12.26" pos="164.55" lane="3/2to2/2_0" slope="0.00"/>
        <vehicle id="4" x="198.35" y="40.52" angle="0.00" type="DEFAULT_VEHTYPE" speed="13.39" pos="154.73" lane="1/1to1/0_0" slope="0.00"/>
        <vehicle id="5" x="398.35" y="664.73" angle="0.00" type="DEFAULT_VEHTYPE" speed="12.60" pos="135.27" lane="2/4to2/3_0" slope="0.00"/>
        <vehicle id="6" x="338.13" y="598.35" angle="90.00" type="DEFAULT_VEHTYPE" speed="13.27" pos="133.38" lane="1/3to2/3_0" slope="0.00"/>
        <vehicle id="7" x="198.35" y="282.32" angle="0.00" type="DEFAULT_VEHTYPE" speed="12.68" pos="112.93" lane="1/2to1/1_0" slope="0.00"/>
        <vehicle id="8" x="305.42" y="198.35" angle="90.00" type="DEFAULT_VEHTYPE" speed="12.88" pos="100.67" lane="1/1to2/1_0" slope="0.00"/>
        <vehicle id="9" x="601.65" y="296.54" angle="180.00" type="DEFAULT_VEHTYPE" speed="12.80" pos="91.79" lane="3/1to3/2_0" slope="0.00"/>
    </timestep>
    <timestep time="19.00">
        <vehicle id="0" x="398.35" y="392.82" angle="-4.17" type="DEFAULT_VEHTYPE" speed="10.91" pos="2.43" lane="2/2to2/1_0" slope="0.00"/>
        <vehicle id="1" x="611.71" y="201.65" angle="-90.00" type="DEFAULT_VEHTYPE" speed="4.50" pos="188.29" lane="4/1to3/1_0" slope="0.00"/>
        <vehicle id="10" x="496.28" y="198.35" angle="90.00" type="DEFAULT_VEHTYPE" speed="13.65" pos="91.53" lane="2/1to3/1_0" slope="0.00"/>
        <vehicle id="11" x="598.35" y="731.80" angle="0.00" type="DEFAULT_VEHTYPE" speed="13.48" pos="68.20" lane="3/4to3/3_0" slope="0.00"/>
        <vehicle id="12" x="401.65" y="61.11" angle="180.00" type="DEFAULT_VEHTYPE" speed="13.57" pos="61.11" lane="2/0to2/1_0" slope="0.00"/>
        <vehicle id="13" x="153.66" y="601.65" angle="-90.00" type="DEFAULT_VEHTYPE" speed="10.50" pos="41.59" lane="1/3to0/3_0" slope="0.00"/>
        <vehicle id="14" x="201.65" y="27.66" angle="180.00" type="DEFAULT_VEHTYPE" speed="7.95" pos="27.66" lane="1/0to1/1_0" slope="0.00"/>
        <vehicle id="15" x="601.65" y="229.44" angle="180.00" type="DEFAULT_VEHTYPE" speed="8.12" pos="24.69" lane="3/1to3/2_0" slope="0.00"/>
        <vehicle id="16" x="598.35" y="783.60" angle="0.00" type="DEFAULT_VEHTYPE" speed="5.48" pos="16.40" lane="3/4to3/3_0" slope="0.00"/>
        <vehicle id="17" x="601.65" y="616.25" angle="180.00" type="DEFAULT_VEHTYPE" speed="4.37" pos="11.50" lane="3/3to3/4_0" slope="0.00"/>